 Gaussian 09, Revision D.01,
 Gaussian 09:  ES64L-G09RevD.01 24-Apr-2013

 -------------------------------
 # b3lyp/3-21g geom=connectivity
 -------------------------------

 ----------
 water test
 ----------
 Symbolic Z-matrix:
 Charge =  0 Multiplicity = 1

                         Standard orientation:
 ---------------------------------------------------------------------
 Center     Atomic      Atomic             Coordinates (Angstroms)
 Number     Number       Type             X           Y           Z
 ---------------------------------------------------------------------
      1          8           0        0.000000    0.000000    0.110812
      2          1           0        0.000000    0.783976   -0.443248
      3          1           0        0.000000   -0.783976   -0.443248
 ---------------------------------------------------------------------

 SCF Done:  E(RB3LYP) =  -75.9715018647     A.U. after    9 cycles

 The electronic state is 1-A1.
 Alpha  occ. eigenvalues --  -18.99134  -0.98433  -0.51396  -0.31443  -0.25548
 Alpha virt. eigenvalues --    0.10040   0.19500   0.95468   0.98613   1.44157
 Alpha virt. eigenvalues --    1.50778   1.65801   2.74514

 Mulliken charges:
               1
     1  O   -0.666444
     2  H    0.333222
     3  H    0.333222
 Sum of Mulliken charges =   0.00000

 Dipole moment (field-independent basis, Debye):
    X=              0.0000    Y=              0.0000    Z=             -2.1902  Tot=              2.1902
 Quadrupole moment (field-independent basis, Debye-Ang):
   XX=             -6.7744   YY=             -4.0304   ZZ=             -5.9174
   XY=              0.0000   XZ=              0.0000   YZ=              0.0000

 Normal termination of Gaussian 09 at Fri Mar 27 13:38:28 2020.
